[Molden Format]
made by pyscf v[1.5.1]
[Atoms] (AU)
H   1   1     1.83458465938493     0.00000000000000     0.00000000000000
H   2   1     1.48421016706198     1.07834180686847     0.00000000000000
H   3   1     0.56691783736952     1.74479369500317     0.00000000000000
H   4   1    -0.56691783736952     1.74479369500317     0.00000000000000
H   5   1    -1.48421016706198     1.07834180686847     0.00000000000000
H   6   1    -1.83458465938493     0.00000000000000     0.00000000000000
H   7   1    -1.48421016706199    -1.07834180686847     0.00000000000000
H   8   1    -0.56691783736952    -1.74479369500317     0.00000000000000
H   9   1     0.56691783736952    -1.74479369500317     0.00000000000000
H   10   1     1.48421016706198    -1.07834180686847     0.00000000000000
[GTO]
1 0
 s    3 1.00
            3.42525091    0.15432897070298
            0.62391373    0.53532814243847
             0.1688554    0.44463454202535

2 0
 s    3 1.00
            3.42525091    0.15432897070298
            0.62391373    0.53532814243847
             0.1688554    0.44463454202535

3 0
 s    3 1.00
            3.42525091    0.15432897070298
            0.62391373    0.53532814243847
             0.1688554    0.44463454202535

4 0
 s    3 1.00
            3.42525091    0.15432897070298
            0.62391373    0.53532814243847
             0.1688554    0.44463454202535

5 0
 s    3 1.00
            3.42525091    0.15432897070298
            0.62391373    0.53532814243847
             0.1688554    0.44463454202535

6 0
 s    3 1.00
            3.42525091    0.15432897070298
            0.62391373    0.53532814243847
             0.1688554    0.44463454202535

7 0
 s    3 1.00
            3.42525091    0.15432897070298
            0.62391373    0.53532814243847
             0.1688554    0.44463454202535

8 0
 s    3 1.00
            3.42525091    0.15432897070298
            0.62391373    0.53532814243847
             0.1688554    0.44463454202535

9 0
 s    3 1.00
            3.42525091    0.15432897070298
            0.62391373    0.53532814243847
             0.1688554    0.44463454202535

10 0
 s    3 1.00
            3.42525091    0.15432897070298
            0.62391373    0.53532814243847
             0.1688554    0.44463454202535

[5d]
[9g]


[MO]
 Sym= A
 Ene=               0
 Spin= Alpha
 Occup=    1.00000
   1       2.1345231139507
   2     -0.99617555399619
   3      0.24759530656262
   4    -0.086799354384388
   5     0.021828517535807
   6    -0.021623208651454
   7     0.021828517535807
   8    -0.086799354384386
   9      0.24759530656261
  10     -0.99617555399619
 Sym= A
 Ene=               1
 Spin= Alpha
 Occup=    1.00000
   1     -0.99617555399619
   2       2.1345231139507
   3     -0.99617555399619
   4      0.24759530656262
   5    -0.086799354384386
   6     0.021828517535806
   7    -0.021623208651454
   8     0.021828517535807
   9    -0.086799354384386
  10      0.24759530656261
 Sym= A
 Ene=               2
 Spin= Alpha
 Occup=    1.00000
   1      0.24759530656262
   2     -0.99617555399619
   3       2.1345231139507
   4     -0.99617555399619
   5      0.24759530656261
   6    -0.086799354384385
   7     0.021828517535807
   8    -0.021623208651456
   9     0.021828517535809
  10    -0.086799354384387
 Sym= A
 Ene=               3
 Spin= Alpha
 Occup=    1.00000
   1    -0.086799354384388
   2      0.24759530656262
   3     -0.99617555399619
   4       2.1345231139507
   5     -0.99617555399619
   6      0.24759530656262
   7    -0.086799354384387
   8      0.02182851753581
   9    -0.021623208651456
  10     0.021828517535808
 Sym= A
 Ene=               4
 Spin= Alpha
 Occup=    1.00000
   1     0.021828517535807
   2    -0.086799354384386
   3      0.24759530656261
   4     -0.99617555399619
   5       2.1345231139507
   6     -0.99617555399619
   7      0.24759530656262
   8    -0.086799354384388
   9     0.021828517535808
  10    -0.021623208651455
 Sym= A
 Ene=               5
 Spin= Alpha
 Occup=    0.00000
   1    -0.021623208651454
   2     0.021828517535806
   3    -0.086799354384385
   4      0.24759530656262
   5     -0.99617555399619
   6       2.1345231139507
   7     -0.99617555399619
   8      0.24759530656262
   9    -0.086799354384388
  10     0.021828517535807
 Sym= A
 Ene=               6
 Spin= Alpha
 Occup=    0.00000
   1     0.021828517535807
   2    -0.021623208651454
   3     0.021828517535807
   4    -0.086799354384387
   5      0.24759530656262
   6     -0.99617555399619
   7       2.1345231139507
   8     -0.99617555399619
   9      0.24759530656262
  10    -0.086799354384386
 Sym= A
 Ene=               7
 Spin= Alpha
 Occup=    0.00000
   1    -0.086799354384386
   2     0.021828517535807
   3    -0.021623208651456
   4      0.02182851753581
   5    -0.086799354384388
   6      0.24759530656262
   7     -0.99617555399619
   8       2.1345231139507
   9     -0.99617555399619
  10      0.24759530656262
 Sym= A
 Ene=               8
 Spin= Alpha
 Occup=    0.00000
   1      0.24759530656261
   2    -0.086799354384386
   3     0.021828517535809
   4    -0.021623208651456
   5     0.021828517535808
   6    -0.086799354384388
   7      0.24759530656262
   8     -0.99617555399619
   9       2.1345231139507
  10     -0.99617555399619
 Sym= A
 Ene=               9
 Spin= Alpha
 Occup=    0.00000
   1     -0.99617555399619
   2      0.24759530656261
   3    -0.086799354384387
   4     0.021828517535808
   5    -0.021623208651455
   6     0.021828517535807
   7    -0.086799354384386
   8      0.24759530656262
   9     -0.99617555399619
  10       2.1345231139507
