[Molden Format]
made by pyscf v[1.5.1]
[Atoms] (AU)
C   1   6     4.14913260900383     0.00000000000000     0.00000000000000
C   2   6     3.61753567385536     2.03192939234678     0.00000000000000
C   3   6     2.07456630450191     3.59325424306772     0.00000000000000
C   4   6     0.04906536445909     4.14884248882859     0.00000000000000
C   5   6    -2.07456630450191     3.59325424306772     0.00000000000000
C   6   6    -3.56847030939627     2.11691309648181     0.00000000000000
C   7   6    -4.14913260900383     0.00000000000000     0.00000000000000
C   8   6    -3.61753567385536    -2.03192939234678     0.00000000000000
C   9   6    -2.07456630450191    -3.59325424306772     0.00000000000000
C   10   6    -0.04906536445909    -4.14884248882859     0.00000000000000
C   11   6     2.07456630450191    -3.59325424306772     0.00000000000000
C   12   6     3.56847030939627    -2.11691309648181     0.00000000000000
[GTO]
1 0
 s    6 1.00
             3047.5249  0.0018347001629433
             457.36951    0.01403730124668
             103.94869   0.068842606114048
             29.210155    0.23218442062076
              9.286663    0.46794134155879
              3.163927    0.36231203217765
 s    3 1.00
             7.8682724   -0.11933240861517
             1.8812885   -0.16085421161283
             0.5442493     1.1434564825515
 s    1 1.00
             0.1687144                   1
 p    3 1.00
             7.8682724   0.068999095584993
             1.8812885    0.31642397975315
             0.5442493    0.74430825237435
 p    1 1.00
             0.1687144                   1

2 0
 s    6 1.00
             3047.5249  0.0018347001629433
             457.36951    0.01403730124668
             103.94869   0.068842606114048
             29.210155    0.23218442062076
              9.286663    0.46794134155879
              3.163927    0.36231203217765
 s    3 1.00
             7.8682724   -0.11933240861517
             1.8812885   -0.16085421161283
             0.5442493     1.1434564825515
 s    1 1.00
             0.1687144                   1
 p    3 1.00
             7.8682724   0.068999095584993
             1.8812885    0.31642397975315
             0.5442493    0.74430825237435
 p    1 1.00
             0.1687144                   1

3 0
 s    6 1.00
             3047.5249  0.0018347001629433
             457.36951    0.01403730124668
             103.94869   0.068842606114048
             29.210155    0.23218442062076
              9.286663    0.46794134155879
              3.163927    0.36231203217765
 s    3 1.00
             7.8682724   -0.11933240861517
             1.8812885   -0.16085421161283
             0.5442493     1.1434564825515
 s    1 1.00
             0.1687144                   1
 p    3 1.00
             7.8682724   0.068999095584993
             1.8812885    0.31642397975315
             0.5442493    0.74430825237435
 p    1 1.00
             0.1687144                   1

4 0
 s    6 1.00
             3047.5249  0.0018347001629433
             457.36951    0.01403730124668
             103.94869   0.068842606114048
             29.210155    0.23218442062076
              9.286663    0.46794134155879
              3.163927    0.36231203217765
 s    3 1.00
             7.8682724   -0.11933240861517
             1.8812885   -0.16085421161283
             0.5442493     1.1434564825515
 s    1 1.00
             0.1687144                   1
 p    3 1.00
             7.8682724   0.068999095584993
             1.8812885    0.31642397975315
             0.5442493    0.74430825237435
 p    1 1.00
             0.1687144                   1

5 0
 s    6 1.00
             3047.5249  0.0018347001629433
             457.36951    0.01403730124668
             103.94869   0.068842606114048
             29.210155    0.23218442062076
              9.286663    0.46794134155879
              3.163927    0.36231203217765
 s    3 1.00
             7.8682724   -0.11933240861517
             1.8812885   -0.16085421161283
             0.5442493     1.1434564825515
 s    1 1.00
             0.1687144                   1
 p    3 1.00
             7.8682724   0.068999095584993
             1.8812885    0.31642397975315
             0.5442493    0.74430825237435
 p    1 1.00
             0.1687144                   1

6 0
 s    6 1.00
             3047.5249  0.0018347001629433
             457.36951    0.01403730124668
             103.94869   0.068842606114048
             29.210155    0.23218442062076
              9.286663    0.46794134155879
              3.163927    0.36231203217765
 s    3 1.00
             7.8682724   -0.11933240861517
             1.8812885   -0.16085421161283
             0.5442493     1.1434564825515
 s    1 1.00
             0.1687144                   1
 p    3 1.00
             7.8682724   0.068999095584993
             1.8812885    0.31642397975315
             0.5442493    0.74430825237435
 p    1 1.00
             0.1687144                   1

7 0
 s    6 1.00
             3047.5249  0.0018347001629433
             457.36951    0.01403730124668
             103.94869   0.068842606114048
             29.210155    0.23218442062076
              9.286663    0.46794134155879
              3.163927    0.36231203217765
 s    3 1.00
             7.8682724   -0.11933240861517
             1.8812885   -0.16085421161283
             0.5442493     1.1434564825515
 s    1 1.00
             0.1687144                   1
 p    3 1.00
             7.8682724   0.068999095584993
             1.8812885    0.31642397975315
             0.5442493    0.74430825237435
 p    1 1.00
             0.1687144                   1

8 0
 s    6 1.00
             3047.5249  0.0018347001629433
             457.36951    0.01403730124668
             103.94869   0.068842606114048
             29.210155    0.23218442062076
              9.286663    0.46794134155879
              3.163927    0.36231203217765
 s    3 1.00
             7.8682724   -0.11933240861517
             1.8812885   -0.16085421161283
             0.5442493     1.1434564825515
 s    1 1.00
             0.1687144                   1
 p    3 1.00
             7.8682724   0.068999095584993
             1.8812885    0.31642397975315
             0.5442493    0.74430825237435
 p    1 1.00
             0.1687144                   1

9 0
 s    6 1.00
             3047.5249  0.0018347001629433
             457.36951    0.01403730124668
             103.94869   0.068842606114048
             29.210155    0.23218442062076
              9.286663    0.46794134155879
              3.163927    0.36231203217765
 s    3 1.00
             7.8682724   -0.11933240861517
             1.8812885   -0.16085421161283
             0.5442493     1.1434564825515
 s    1 1.00
             0.1687144                   1
 p    3 1.00
             7.8682724   0.068999095584993
             1.8812885    0.31642397975315
             0.5442493    0.74430825237435
 p    1 1.00
             0.1687144                   1

10 0
 s    6 1.00
             3047.5249  0.0018347001629433
             457.36951    0.01403730124668
             103.94869   0.068842606114048
             29.210155    0.23218442062076
              9.286663    0.46794134155879
              3.163927    0.36231203217765
 s    3 1.00
             7.8682724   -0.11933240861517
             1.8812885   -0.16085421161283
             0.5442493     1.1434564825515
 s    1 1.00
             0.1687144                   1
 p    3 1.00
             7.8682724   0.068999095584993
             1.8812885    0.31642397975315
             0.5442493    0.74430825237435
 p    1 1.00
             0.1687144                   1

11 0
 s    6 1.00
             3047.5249  0.0018347001629433
             457.36951    0.01403730124668
             103.94869   0.068842606114048
             29.210155    0.23218442062076
              9.286663    0.46794134155879
              3.163927    0.36231203217765
 s    3 1.00
             7.8682724   -0.11933240861517
             1.8812885   -0.16085421161283
             0.5442493     1.1434564825515
 s    1 1.00
             0.1687144                   1
 p    3 1.00
             7.8682724   0.068999095584993
             1.8812885    0.31642397975315
             0.5442493    0.74430825237435
 p    1 1.00
             0.1687144                   1

12 0
 s    6 1.00
             3047.5249  0.0018347001629433
             457.36951    0.01403730124668
             103.94869   0.068842606114048
             29.210155    0.23218442062076
              9.286663    0.46794134155879
              3.163927    0.36231203217765
 s    3 1.00
             7.8682724   -0.11933240861517
             1.8812885   -0.16085421161283
             0.5442493     1.1434564825515
 s    1 1.00
             0.1687144                   1
 p    3 1.00
             7.8682724   0.068999095584993
             1.8812885    0.31642397975315
             0.5442493    0.74430825237435
 p    1 1.00
             0.1687144                   1

[5d]
[9g]


[MO]
 Sym= A
 Ene=               0
 Spin= Alpha
 Occup=    1.00000
   1      0.99161230062289
   2      0.04144795725582
   3    -0.0070579733539571
   4                     0
   5                     0
   6                     0
   7                     0
   8                     0
   9                     0
  10    -0.0017513981550319
  11    -7.3205904991381e-05
  12    1.2465881577528e-05
  13                     0
  14                     0
  15                     0
  16                     0
  17                     0
  18                     0
  19    8.7599041823686e-05
  20    3.6615130115653e-06
  21    -6.2350144571157e-07
  22                     0
  23                     0
  24                     0
  25                     0
  26                     0
  27                     0
  28    6.2330261074356e-06
  29    2.6053145923373e-07
  30    -4.4364649523977e-08
  31                     0
  32                     0
  33                     0
  34                     0
  35                     0
  36                     0
  37    2.8365258494039e-07
  38    1.1856267019607e-08
  39    -2.0189467043044e-09
  40                     0
  41                     0
  42                     0
  43                     0
  44                     0
  45                     0
  46    -5.3331624266282e-09
  47    -2.2291846133653e-10
  48    3.7959712960219e-11
  49                     0
  50                     0
  51                     0
  52                     0
  53                     0
  54                     0
  55    -1.9962098274921e-08
  56    -8.3438678152305e-10
  57    1.4208371318605e-10
  58                     0
  59                     0
  60                     0
  61                     0
  62                     0
  63                     0
  64    -7.2893468664078e-09
  65    -3.0468413628182e-10
  66    5.1883196606718e-11
  67                     0
  68                     0
  69                     0
  70                     0
  71                     0
  72                     0
  73    2.8365258486937e-07
  74    1.1856267016639e-08
  75    -2.0189467037989e-09
  76                     0
  77                     0
  78                     0
  79                     0
  80                     0
  81                     0
  82    5.5124241992578e-06
  83    2.3041134367057e-07
  84    -3.9235639866136e-08
  85                     0
  86                     0
  87                     0
  88                     0
  89                     0
  90                     0
  91    8.7599041823643e-05
  92    3.6615130115635e-06
  93    -6.2350144571127e-07
  94                     0
  95                     0
  96                     0
  97                     0
  98                     0
  99                     0
 100    -0.0013583917328197
 101    -5.6778806034581e-05
 102    9.6685898797896e-06
 103                     0
 104                     0
 105                     0
 106                     0
 107                     0
 108                     0
 Sym= A
 Ene=               1
 Spin= Alpha
 Occup=    1.00000
   1     -0.23706064830781
   2       1.0586944334061
   3       1.4761390524866
   4     -0.16635730514311
   5     0.051401921211406
   6    -1.5888541256329e-17
   7     -0.11975745438026
   8     0.037003263723449
   9    -1.1437858127341e-17
  10    -0.011458521272469
  11     -0.32404354274612
  12     -0.44637074873436
  13     -0.13113787794201
  14      0.49656837869531
  15    -1.6179166248468e-16
  16    -0.094403659771083
  17      0.35747011474565
  18    -1.1647073521928e-16
  19    -0.0097767049137884
  20    -0.069617162776108
  21    -0.095423862415057
  22     -0.10135299292168
  23     0.034039469276718
  24    6.2010108654545e-17
  25    -0.072962088533948
  26     0.024504365381058
  27    4.4639895746828e-17
  28    -0.0033346105475769
  29    -0.024246693734108
  30    -0.033239376343881
  31    -0.023600687335788
  32     0.005649486802066
  33    -1.5029959941003e-17
  34    -0.016989685151049
  35    0.0040669579095928
  36    -1.0819781796919e-17
  37    -0.00032864777391177
  38    -0.0031554344745447
  39    -0.0043325543929392
  40    -0.0034890298017876
  41    -0.0025194541123723
  42    -9.3469684926025e-17
  43    -0.0025116860781046
  44    -0.0018137070125417
  45    -6.7287045307908e-17
  46    -8.9853756010428e-05
  47    -0.00096961241799182
  48    -0.0013320431463636
  49    -0.00082508326703224
  50    -0.00057761705993074
  51    -8.2330976790043e-17
  52    -0.00059396172369184
  53    -0.00041581551615308
  54    -5.9268501545719e-17
  55    -8.5386169044475e-06
  56    -0.00023626255407066
  57    -0.00032544029904441
  58    -1.2651924615608e-05
  59    -1.5131380455766e-05
  60    1.0385482504497e-17
  61    -9.1078794746814e-06
  62    -1.0892792493139e-05
  63    7.4763109812304e-18
  64    -5.4052132643065e-05
  65    -0.00085415781760503
  66    -0.0011750592692651
  67    -0.00075927734735768
  68    0.00053463258499661
  69    -4.0308041120424e-17
  70    -0.00054658929591298
  71    0.00038487181162771
  72    -2.901699081675e-17
  73    -0.00044306113587438
  74    -0.0031602167872823
  75    -0.004331740035897
  76    -0.0031992244491535
  77    0.0024135778829172
  78    -3.5688181297432e-18
  79    -0.0023030607263812
  80    0.0017374887322082
  81    -2.5691241751993e-18
  82    -0.0023307608167354
  83    -0.020551173495893
  84    -0.028205362188782
  85     -0.02162246954343
  86    -0.0049017273415115
  87    3.5108844191363e-18
  88    -0.015565603853154
  89     -0.00352866012094
  90    2.5274188007397e-18
  91     -0.01207856117768
  92    -0.069713377032399
  93    -0.095407478551961
  94    -0.094783940984093
  95    -0.029045173467344
  96    -1.9883078891929e-17
  97    -0.068233153203697
  98    -0.020909066983803
  99    -1.4313449663608e-17
 100    -0.0013422349628794
 101     -0.25500162777743
 102     -0.35176261130911
 103     -0.11683172658623
 104      -0.4398529691866
 105    1.2161515355959e-17
 106    -0.084104933983999
 107     -0.31664177203443
 108    8.7548431923877e-18
 Sym= A
 Ene=               2
 Spin= Alpha
 Occup=    1.00000
   1    -0.074253617413926
   2      -2.3271524418506
   3       24.583331435048
   4      -0.1242983969366
   5    -0.0078441674715919
   6    -1.4359588986404e-15
   7      -2.8990405068426
   8       2.8826070773491
   9    -4.792424720081e-16
  10     0.084774173191339
  11      0.46307128165113
  12      -5.5172951268794
  13      0.10365241819552
  14    -0.057286901037813
  15    -1.6956778005275e-15
  16      -3.7207380573608
  17       11.353288074387
  18    -2.8784234487358e-15
  19    -0.0087016712487341
  20    -0.067658664241704
  21     -0.16006588998569
  22     0.044419794447167
  23    -0.073396590720552
  24    2.9293394810122e-15
  25      -8.3855200731492
  26       3.3683873760852
  27    3.448494555688e-16
  28    0.0096918411235055
  29     0.037927474744954
  30      -6.2351520523022
  31    -0.054803879550394
  32     0.017013649611952
  33    -1.9081669123034e-15
  34      -5.3394231059358
  35      0.77247991086955
  36    -3.8275278758242e-15
  37    -0.0051312441023863
  38    -0.034417180306755
  39     -0.55172298322818
  40     0.019913021286469
  41    -0.0010669347209585
  42    -1.6962436801026e-17
  43      -2.1449456296734
  44      -1.6969053029864
  45    2.1591475773221e-15
  46    0.0039713928507121
  47      0.02742334468258
  48       -2.185648238614
  49    -0.0087326781480819
  50    -0.0036739566802849
  51    -2.3838010666822e-15
  52     -0.94052567216592
  53      -1.0575999350815
  54    -2.4327451233713e-15
  55     -0.00318688983194
  56    -0.025732352107674
  57     -0.28599723668804
  58    0.0045714357992242
  59    0.00030723387364094
  60    2.5582240731868e-15
  61      0.23052047804697
  62     -0.37731416657055
  63    3.6518478317815e-15
  64    0.0040236000639612
  65     0.027356333625945
  66      -1.7364524000038
  67    -0.0092975076912832
  68    0.0049239562736641
  69    -1.9746551621297e-15
  70     -0.48133571721988
  71      0.30443781939669
  72    -2.6346906656498e-15
  73    -0.0052847491212903
  74    -0.035686251939955
  75     -0.55346409420999
  76      0.01928551278759
  77    0.0016177534501348
  78    1.2057147626321e-15
  79       -1.142932318132
  80       1.1320324189958
  81    1.4641653781463e-15
  82    0.0099119181616348
  83     0.042546951952192
  84      -4.0105623372437
  85    -0.053674441613311
  86    -0.015891452040071
  87    -7.6160705878981e-16
  88      -3.3957687229624
  89     -0.67036034224156
  90    -1.2253004311618e-15
  91    -0.0093951890203192
  92    -0.081132650785572
  93     -0.17861227464472
  94     0.038382315893015
  95     0.075268975498447
  96    -8.7128694803419e-16
  97      -5.6817984506712
  98      -1.7705457265719
  99    1.6746892631283e-16
 100     0.078499577448841
 101      0.44048657646216
 102       -2.063810431836
 103     0.086860761579496
 104     0.028854814924792
 105    2.4078773786036e-16
 106      -1.6005048867824
 107      -7.2228924349751
 108    5.4040891519816e-16
 Sym= A
 Ene=               3
 Spin= Alpha
 Occup=    1.00000
   1    0.0042641351427367
   2     -0.11531550661943
   3     -0.15938785863655
   4      0.79777679831228
   5    -0.00089486082882702
   6    -4.0867086283359e-17
   7      0.57430431712828
   8    -0.00064419326096167
   9    -2.9419436778105e-17
  10      0.02077419746565
  11     0.090319271218024
  12      0.12327595708168
  13     -0.16474970272441
  14    -0.098947571376843
  15    -6.3244639299293e-17
  16     -0.11860017202856
  17    -0.071230471394125
  18    -4.552861083657e-17
  19    -0.0052472184402037
  20    -0.015658160024357
  21    -0.021265053917204
  22     0.011812182335538
  23     0.013212715331868
  24    -5.1319618018806e-17
  25    0.0085033650068003
  26    0.0095115820266164
  27    -3.6944015223213e-17
  28    0.00015045400216318
  29    0.0037344192234143
  30    0.0051429791178977
  31     0.002059050908097
  32    -0.0063093145257949
  33    -4.2394103795302e-17
  34    0.0014822715178088
  35    -0.0045419553162611
  36    -3.0518707590811e-17
  37    -0.00022570162003704
  38    -0.00035003881986966
  39    -0.00046835782845441
  40    2.8062761640946e-05
  41    0.00037848198577254
  42    8.0695089683333e-17
  43    2.0201847427792e-05
  44    0.00027246197037103
  45    5.8090857586023e-17
  46    -0.00013258305869676
  47    0.00028251051299651
  48    0.00039839635019965
  49    0.00074336164925322
  50    -0.00028620283598418
  51    -2.9910240097906e-17
  52    0.00053513188808809
  53    -0.00020603196862555
  54    -2.15318119691e-17
  55    -0.00014029343580716
  56    2.9195501981968e-06
  57    1.3118134013629e-05
  58    0.00032818507899175
  59    -3.5066474020994e-06
  60    4.3287888501181e-17
  61    0.00023625418548243
  62    -2.5243686529024e-06
  63    3.1162126171366e-17
  64    -0.00013736054296237
  65    0.00027208013995006
  66    0.00038431412795377
  67    0.00073418597745753
  68    0.0002673914934512
  69    3.6720521045588e-18
  70    0.00052852649678571
  71    0.00019249004154705
  72    2.6434403467605e-18
  73    -0.00022300968860807
  74    -0.00031298438663214
  75    -0.00041740477716698
  76    4.9757124917233e-05
  77    -0.00039100723225028
  78    2.6090802216758e-17
  79    3.5819206209445e-05
  80    -0.00028147865666784
  81    1.8782271409902e-17
  82    6.3281577782165e-06
  83    0.0035805729820673
  84    0.0049400411450718
  85    0.0022570257357066
  86    0.0059110239413869
  87    -2.0767322798899e-17
  88    0.0016247898242066
  89     0.004255233513144
  90    -1.4950000004808e-17
  91    -0.0057787799383834
  92    -0.014957898432876
  93    -0.020264397136105
  94     0.012678597473545
  95    -0.012712490318709
  96    1.1755661107439e-18
  97    0.0091270807569145
  98    -0.0091514795703902
  99    8.4626764515866e-19
 100     0.018058651181462
 101     0.086796368698634
 102      0.11859102232639
 103     -0.15140538467469
 104     0.098822770556735
 105    4.0768330389726e-17
 106     -0.10899385171278
 107     0.071140629661549
 108    2.9348344291866e-17
 Sym= A
 Ene=               4
 Spin= Alpha
 Occup=    1.00000
   1    0.0045755978652404
   2     0.035877093456608
   3     0.049206520858097
   4    -0.00089486082882703
   5       1.2729948535292
   6    1.2373266074633e-17
   7    -0.00064419326096168
   8      0.91640474078785
   9    8.9072785002922e-18
  10    -0.092338823058268
  11     -0.34901918669064
  12     -0.47559165973485
  13     -0.18824290883506
  14      0.34654848080071
  15    -4.202068434014e-16
  16     -0.13551248349346
  17      0.24947364856829
  18    -3.0249890039771e-16
  19    -0.0097153915478826
  20    -0.067476220987592
  21    -0.092473777512194
  22     -0.07247572904239
  23     0.047182919438305
  24    5.6217727146131e-18
  25     -0.05217389646342
  26     0.033966084731293
  27    4.0470070660697e-18
  28    -0.0022780328034395
  29    -0.016525257163705
  30    -0.022653845500526
  31    -0.018336112554218
  32     0.002350514579034
  33    8.9475534050076e-17
  34    -0.013199818071314
  35    0.0016920906612826
  36    6.4411732192545e-17
  37    -0.00031582525447965
  38    -0.0027745143629249
  39    -0.0038077941017944
  40    -0.0032955398351148
  41    -0.0016271755552163
  42    -3.4722064569967e-17
  43    -0.0023723963376456
  44    -0.0011713726797562
  45    -2.4995752727235e-17
  46    -8.8297395124194e-05
  47    -0.00064083503605012
  48    -0.0008784991060263
  49    -0.000559236487889
  50    -0.00068179138638661
  51    2.9952842796059e-16
  52    -0.00040258369254378
  53    -0.00049080862894365
  54    2.1562480839795e-16
  55    7.289586217481e-06
  56    1.0809671594363e-05
  57    1.4442814197541e-05
  58    -3.5066474022063e-06
  59    -0.00037908004667903
  60    5.4182008496582e-17
  61    -2.5243686529793e-06
  62    -0.0002728925030228
  63    3.900459559127e-17
  64    5.908274806056e-05
  65    0.00058423145720069
  66    0.00080229070600207
  67    0.00053470068039053
  68    -0.00069381494792862
  69    5.8949557427811e-18
  70    0.00038492083220438
  71    -0.0004994641618138
  72    4.2436663231138e-18
  73    0.00044288783343529
  74    0.0029908200437895
  75    0.0040980187469785
  76    0.0032830145886384
  77    -0.0016488699184942
  78    1.5048940880224e-16
  79    0.0023633796513497
  80    -0.001186990038539
  81    1.0833445813421e-16
  82    0.0016475888266173
  83     0.015038997982175
  84     0.020643961936362
  85     0.018034498774072
  86    0.0019738393283272
  87    -4.797801271437e-17
  88     0.012982692057609
  89    0.0014209293250619
  90    -3.4538457231884e-17
  91      0.01251921017339
  92     0.073276634987481
  93      0.10029548843692
  94      0.07297595405555
  95       0.0463165043003
  96    -3.9508372818553e-17
  97     0.052533998919648
  98     0.033342368981181
  99    -2.8441324842248e-17
 100     0.074636738399874
 101      0.30713555899983
 102      0.41894784102029
 103      0.18840850510596
 104      0.33277900666182
 105    3.057068740904e-17
 106      0.13563169309379
 107      0.23956126648438
 108    2.2007255404936e-17
 Sym= A
 Ene=               5
 Spin= Alpha
 Occup=    1.00000
   1    1.2698665956647e-17
   2    -1.0499851332466e-17
   3    -1.5310385897702e-17
   4    -4.0867086283359e-17
   5    1.2373266074633e-17
   6      0.77160654936143
   7    -2.9419436778105e-17
   8    8.9072785002922e-18
   9      0.55546485352819
  10    -9.85161425612e-18
  11    -2.6688221446013e-17
  12    -3.6185936836942e-17
  13    1.0153539391484e-16
  14    8.3813343745076e-18
  15     -0.18681997427602
  16    7.3093395533654e-17
  17    6.033562927323e-18
  18     -0.13448814001547
  19    2.0885161511698e-17
  20    -2.4913915814184e-16
  21    -3.4511375025585e-16
  22    1.1062521573246e-16
  23    -2.4224318102891e-16
  24     0.026380887760507
  25    7.9636985072525e-17
  26    -1.74386250583e-16
  27     0.018991098465871
  28    -3.9983340823742e-17
  29    1.4943937711193e-16
  30    2.087860362036e-16
  31    4.1811918288551e-16
  32    -6.3212783698849e-18
  33    -0.0050194803509042
  34    3.0099603336835e-16
  35    -4.5505678596753e-18
  36    -0.0036134282688633
  37    7.7647333582785e-18
  38    9.1836280993651e-17
  39    1.2621201395984e-16
  40    1.679423398196e-16
  41    -6.4381108579399e-18
  42    0.00074788612982554
  43    1.2089849064433e-16
  44    -4.6346733418261e-18
  45    0.00053838897544754
  46     1.23453833527e-17
  47    -1.2691334146456e-16
  48    -1.7591406769166e-16
  49    2.2503671972332e-17
  50    1.4160381945991e-16
  51    -0.00024023266294313
  52    1.6199964692242e-17
  53    1.0193789166309e-16
  54    -0.00017293891691929
  55    -4.301055414259e-19
  56    2.5293395944736e-17
  57    3.4927529074647e-17
  58    -5.1704079284513e-17
  59    3.2830769184487e-16
  60    1.7220876340488e-05
  61    -3.7220781563285e-17
  62    2.3634245213926e-16
  63    1.2396980769555e-05
  64    -5.7795111549238e-17
  65    5.2250934035789e-16
  66    7.2469957158301e-16
  67    2.1148407414271e-16
  68    -1.5381973517018e-16
  69    -0.0002290834006028
  70    1.522433555864e-16
  71    -1.1073189663405e-16
  72    -0.00016491277538647
  73    2.109591779275e-17
  74    -1.9150756607202e-16
  75    -2.6560771204163e-16
  76    4.3869817745771e-16
  77    -2.5502958401936e-16
  78    0.0007478861298257
  79    3.1581045947096e-16
  80    -1.8359093847753e-16
  81    0.00053838897544766
  82    6.0907324515284e-17
  83    -4.0086358526572e-16
  84    -5.5705519883157e-16
  85    -8.2753081917187e-17
  86    -6.4338120907351e-17
  87    -0.0046032610077223
  88    -5.9572366984415e-17
  89    -4.6315787412195e-17
  90    -0.0033137998939001
  91    -2.2803088150616e-17
  92    1.6164563774385e-16
  93    2.245150282324e-16
  94    -1.3951320751372e-16
  95    -5.2188841960539e-17
  96     0.026380887760507
  97    -1.0043289995529e-16
  98    -3.7569752977613e-17
  99     0.018991098465871
 100    4.8255558241428e-18
 101    1.122187800428e-17
 102    1.517122099713e-17
 103    -6.6285531658217e-17
 104    -3.5605878931458e-17
 105     -0.17541560886015
 106    -4.7717691307884e-17
 107    -2.5631993846829e-17
 108     -0.12627835463903
 Sym= A
 Ene=               6
 Spin= Alpha
 Occup=    1.00000
   1     0.081322969426313
   2      0.48626917250352
   3      -5.2279150932487
   4     -0.93923558433602
   5     0.004614567147263
   6     8.82858050458e-17
   7       3.8525227675795
   8      0.10874641582543
   9    7.5349957097702e-16
  10    -0.043413777693081
  11     -0.21580059503746
  12       4.4690978936769
  13    -0.076758453623537
  14    -0.020523246626207
  15    1.9732675535327e-16
  16      -2.1133635681673
  17     -0.84328310213297
  18    -1.4376730554936e-15
  19    -0.00069177676203081
  20    -0.062089543323754
  21      -2.7590350872754
  22    -0.052759992674852
  23     0.097928844640163
  24    9.8816242022079e-18
  25      0.41486147532826
  26      0.86425316984772
  27    1.8995839920632e-15
  28    -0.005101083128604
  29    -0.010644815031936
  30        1.448793415069
  31     0.041406938895509
  32    -0.010680349575477
  33    -2.3637876445845e-16
  34     0.024586879440795
  35     -0.48725959437135
  36    -1.3935398051163e-15
  37     0.003450250049214
  38     0.023780234330911
  39     -0.80848718652115
  40    -0.014157846506355
  41    0.0010514461119131
  42    2.1528405124871e-15
  43     -0.19422670901416
  44      0.19752939739664
  45    1.3965295222053e-15
  46    -0.0030870932622899
  47    -0.024405404502323
  48       0.5229383551941
  49    0.0035695518850226
  50    0.0026393975110687
  51    -7.662891816498e-16
  52      0.16876757090865
  53    -0.096110661909245
  54    -3.3452318281713e-16
  55    0.0023878546399616
  56     0.019650835503283
  57     -0.44969868065324
  58    -0.0042421135557844
  59    -0.0002972980534238
  60    1.322879094098e-15
  61     -0.16444150102274
  62    -0.013921363593436
  63    -5.5788182082575e-17
  64    -0.0030895152546546
  65    -0.024237428722839
  66       0.5257418783036
  67    0.0036730399597972
  68    -0.0030186189850248
  69    -2.3391827013859e-16
  70      0.18427793208136
  71     0.064038443601223
  72    5.206346907447e-16
  73    0.0034403770225611
  74     0.024791469340998
  75     -0.78255902997396
  76    -0.012694323551312
  77    -0.0016264834804945
  78    5.4746900275008e-16
  79     -0.15341415408341
  80      -0.2208982209453
  81    -1.4151916522458e-16
  82    -0.0052626258119532
  83    -0.011663879158832
  84       1.4496412255548
  85     0.041974229240551
  86     0.009619510592363
  87    3.5918366943272e-17
  88      0.11399736573081
  89      0.47029378455879
  90    -3.1934695262774e-16
  91    -0.0025204552457969
  92    -0.074771569701827
  93      -2.7164836448081